443
Atoms. Timestep: 0
1 5 7 3
1 4 6 2
1 3 7 3
1 2 6 2
1 1 7 3
1 6 6 2
1 7 7 3
1 8 6 2
1 9 7 3
1 10 6 2
1 1 9 3
1 2 8 2
1 3 9 3
1 4 8 2
1 5 9 3
1 6 8 2
1 10 4 2
1 9 5 3
1 8 4 2
1 7 5 3
1 6 4 2
1 5 5 3
1 4 4 2
1 3 5 3
1 2 4 2
1 1 5 3
1 7 9 3
1 8 8 2
1 9 9 3
1 10 8 2
1 2 10 2
1 4 10 2
1 6 10 2
1 8 10 2
1 10 10 2
1 10 2 2
1 9 3 3
1 8 2 2
1 7 3 3
1 6 2 2
1 5 3 3
1 4 2 2
1 3 3 3
1 2 2 2
1 1 3 3
1 9 1 3
1 7 1 3
1 5 1 3
1 3 1 3
1 1 1 3
1 10 10 0
1 8 10 0
1 6 10 0
1 4 10 0
1 2 10 0
1 10 8 0
1 9 9 1
1 8 8 0
1 7 9 1
1 6 8 0
1 5 9 1
1 4 8 0
1 3 9 1
1 2 8 0
1 1 9 1
1 10 6 0
1 9 7 1
1 8 6 0
1 7 7 1
1 6 6 0
1 5 7 1
1 4 6 0
1 3 7 1
1 2 6 0
1 1 7 1
1 10 4 0
1 9 5 1
1 8 4 0
1 7 5 1
1 6 4 0
1 5 5 1
1 4 4 0
1 3 5 1
1 2 4 0
1 1 5 1
1 2 2 4
1 4 2 4
1 6 2 4
1 10 2 0
1 9 3 1
1 8 2 0
1 7 3 1
1 6 2 0
1 5 3 1
1 4 2 0
1 3 3 1
1 2 2 0
1 1 3 1
1 8 2 4
1 10 2 4
1 2 4 4
1 4 4 4
1 6 4 4
1 8 4 4
1 10 4 4
1 10 10 4
1 8 10 4
1 6 10 4
1 4 10 4
1 2 10 4
1 10 8 4
1 8 8 4
1 6 8 4
1 4 8 4
1 2 8 4
1 10 6 4
1 1 1 1
1 2 6 4
1 3 1 1
1 4 6 4
1 5 1 1
1 6 6 4
1 7 1 1
1 8 6 4
1 9 1 1
1 10 18 2
1 9 19 3
1 8 18 2
1 7 19 3
1 6 18 2
1 1 11 1
1 3 11 1
1 5 11 1
1 7 11 1
1 9 11 1
1 5 19 3
1 4 18 2
1 3 19 3
1 2 18 2
1 1 19 3
1 10 16 2
1 9 17 3
1 8 16 2
1 7 17 3
1 6 16 2
1 5 17 3
1 1 13 1
1 2 12 0
1 3 13 1
1 4 12 0
1 5 13 1
1 6 12 0
1 7 13 1
1 8 12 0
1 9 13 1
1 10 12 0
1 4 16 2
1 3 17 3
1 2 16 2
1 1 17 3
1 10 14 2
1 9 15 3
1 8 14 2
1 7 15 3
1 6 14 2
1 5 15 3
1 4 14 2
1 1 15 1
1 2 14 0
1 3 15 1
1 4 14 0
1 5 15 1
1 6 14 0
1 7 15 1
1 8 14 0
1 9 15 1
1 10 14 0
1 3 15 3
1 2 14 2
1 1 15 3
1 2 12 4
1 4 12 4
1 6 12 4
1 8 12 4
1 10 12 4
1 2 14 4
1 4 14 4
1 6 14 4
1 1 17 1
1 2 16 0
1 3 17 1
1 4 16 0
1 5 17 1
1 6 16 0
1 7 17 1
1 8 16 0
1 9 17 1
1 10 16 0
1 8 14 4
1 10 12 2
1 9 13 3
1 8 12 2
1 7 13 3
1 6 12 2
1 5 13 3
1 4 12 2
1 3 13 3
1 2 12 2
1 1 13 3
1 1 19 1
1 2 18 0
1 3 19 1
1 4 18 0
1 5 19 1
1 6 18 0
1 7 19 1
1 8 18 0
1 9 19 1
1 10 18 0
1 10 14 4
1 2 16 4
1 4 16 4
1 6 16 4
1 8 16 4
1 10 16 4
1 2 18 4
1 4 18 4
1 6 18 4
1 8 18 4
1 10 18 4
1 9 11 3
1 7 11 3
1 5 11 3
1 3 11 3
1 1 11 3
1 12 6 2
1 11 7 3
1 13 7 3
1 14 6 2
1 15 7 3
1 16 6 2
1 17 7 3
1 18 6 2
1 19 7 3
1 11 9 3
1 12 8 2
1 13 9 3
1 14 8 2
1 19 5 3
1 18 4 2
1 17 5 3
1 16 4 2
1 15 5 3
1 14 4 2
1 13 5 3
1 12 4 2
1 11 5 3
1 15 9 3
1 16 8 2
1 17 9 3
1 18 8 2
1 19 9 3
1 12 10 2
1 14 10 2
1 16 10 2
1 18 10 2
1 19 3 3
1 18 2 2
1 17 3 3
1 16 2 2
1 15 3 3
1 14 2 2
1 13 3 3
1 12 2 2
1 11 3 3
1 19 1 3
1 17 1 3
1 15 1 3
1 13 1 3
1 11 1 3
1 18 10 0
1 16 10 0
1 14 10 0
1 12 10 0
1 19 9 1
1 18 8 0
1 17 9 1
1 16 8 0
1 15 9 1
1 14 8 0
1 13 9 1
1 12 8 0
1 11 9 1
1 19 7 1
1 18 6 0
1 17 7 1
1 16 6 0
1 15 7 1
1 14 6 0
1 13 7 1
1 12 6 0
1 11 7 1
1 19 5 1
1 18 4 0
1 17 5 1
1 16 4 0
1 15 5 1
1 14 4 0
1 13 5 1
1 12 4 0
1 11 5 1
1 12 2 4
1 14 2 4
1 16 2 4
1 18 2 4
1 12 4 4
1 14 4 4
1 16 4 4
1 18 4 4
1 12 6 4
1 19 3 1
1 18 2 0
1 17 3 1
1 16 2 0
1 15 3 1
1 14 2 0
1 13 3 1
1 12 2 0
1 11 3 1
1 14 6 4
1 16 6 4
1 18 6 4
1 12 8 4
1 14 8 4
1 16 8 4
1 11 1 1
1 18 8 4
1 13 1 1
1 12 10 4
1 15 1 1
1 14 10 4
1 17 1 1
1 16 10 4
1 19 1 1
1 18 10 4
1 11 11 1
1 13 11 1
1 15 11 1
1 17 11 1
1 19 11 1
1 19 19 3
1 18 18 2
1 17 19 3
1 16 18 2
1 15 19 3
1 11 13 1
1 12 12 0
1 13 13 1
1 14 12 0
1 15 13 1
1 16 12 0
1 17 13 1
1 18 12 0
1 19 13 1
1 14 18 2
1 13 19 3
1 12 18 2
1 11 19 3
1 19 17 3
1 18 16 2
1 17 17 3
1 16 16 2
1 15 17 3
1 14 16 2
1 13 17 3
1 11 15 1
1 12 14 0
1 13 15 1
1 14 14 0
1 15 15 1
1 16 14 0
1 17 15 1
1 18 14 0
1 19 15 1
1 12 16 2
1 11 17 3
1 19 15 3
1 18 14 2
1 17 15 3
1 16 14 2
1 15 15 3
1 14 14 2
1 13 15 3
1 12 14 2
1 11 15 3
1 11 17 1
1 12 16 0
1 13 17 1
1 14 16 0
1 15 17 1
1 16 16 0
1 17 17 1
1 18 16 0
1 19 17 1
1 12 12 4
1 14 12 4
1 16 12 4
1 18 12 4
1 12 14 4
1 14 14 4
1 16 14 4
1 18 14 4
1 12 16 4
1 14 16 4
1 19 13 3
1 11 19 1
1 12 18 0
1 13 19 1
1 14 18 0
1 15 19 1
1 16 18 0
1 17 19 1
1 18 18 0
1 19 19 1
1 18 12 2
1 17 13 3
1 16 12 2
1 15 13 3
1 14 12 2
1 13 13 3
1 12 12 2
1 11 13 3
1 16 16 4
1 18 16 4
1 12 18 4
1 14 18 4
1 16 18 4
1 19 11 3
1 17 11 3
1 15 11 3
1 13 11 3
1 11 11 3
1 18 18 4
